[
  {
    "Mode": "01",
    "PID": "00",
    "DataLen": 4,
    "Desc": "PIDs supported [01 - 20]",
    "Min": 0,
    "Max": 0,
    "Units": "",
    "Formula": ""
  },
  {
    "Mode": "01",
    "PID": "01",
    "DataLen": 4,
    "Desc": "Monitor status since DTCs cleared.",
    "Min": 0,
    "Max": 0,
    "Units": "",
    "Formula": ""
  },
  {
    "Mode": "01",
    "PID": "02",
    "DataLen": 2,
    "Desc": "Freeze DTC",
    "Min": 0,
    "Max": 0,
    "Units": "",
    "Formula": ""
  },
  {
    "Mode": "01",
    "PID": "03",
    "DataLen": 2,
    "Desc": "Fuel system status",
    "Min": 0,
    "Max": 0,
    "Units": "",
    "Formula": ""
  },
  {
    "Mode": "01",
    "PID": "04",
    "DataLen": 1,
    "Desc": "Calculated engine load value",
    "Min": 0,
    "Max": 100,
    "Units": "%",
    "Formula": "(100/255)A"
  },
  {
    "Mode": "01",
    "PID": "05",
    "DataLen": 1,
    "Desc": "Engine coolant temperature",
    "Min": -40,
    "Max": 215,
    "Units": "C",
    "Formula": "A-40"
  },
  {
    "Mode": "01",
    "PID": "06",
    "DataLen": 1,
    "Desc": "Short term fuel % trim-Bank 1",
    "Min": -100,
    "Max": 99.2,
    "Units": "%",
    "Formula": "(100/128)A-100"
  },
  {
    "Mode": "01",
    "PID": "07",
    "DataLen": 1,
    "Desc": "Long term fuel % trim-Bank 1",
    "Min": -100,
    "Max": 99.2,
    "Units": "%",
    "Formula": "(100/128)A-100"
  },
  {
    "Mode": "01",
    "PID": "08",
    "DataLen": 1,
    "Desc": "Short term fuel % trim-Bank 2",
    "Min": -100,
    "Max": 99.2,
    "Units": "%",
    "Formula": "(100/128)A-100"
  },
  {
    "Mode": "01",
    "PID": "09",
    "DataLen": 1,
    "Desc": "Long term fuel % trim-Bank 2",
    "Min": -100,
    "Max": 99.2,
    "Units": "%",
    "Formula": "(100/128)A-100"
  },
  {
    "Mode": "01",
    "PID": "0A",
    "DataLen": 1,
    "Desc": "Fuel pressure",
    "Min": 0,
    "Max": 765,
    "Units": "kPa",
    "Formula": "A"
  },
  {
    "Mode": "01",
    "PID": "0B",
    "DataLen": 1,
    "Desc": "Intake manifold absolute pressure",
    "Min": 0,
    "Max": 255,
    "Units": "kPa",
    "Formula": "A"
  },
  {
    "Mode": "01",
    "PID": "0C",
    "DataLen": 2,
    "Desc": "Engine RPM",
    "Min": 0,
    "Max": 16383.75,
    "Units": "rpm",
    "Formula": "(256A+B)/4"
  },
  {
    "Mode": "01",
    "PID": "0D",
    "DataLen": 1,
    "Desc": "Vehicle speed",
    "Min": 0,
    "Max": 255,
    "Units": "km/h",
    "Formula": "A"
  },
  {
    "Mode": "01",
    "PID": "0E",
    "DataLen": 1,
    "Desc": "Timing advance",
    "Min": -64,
    "Max": 63.5,
    "Units": "degrees",
    "Formula": "(A/2)-64"
  },
  {
    "Mode": "01",
    "PID": "0F",
    "DataLen": 1,
    "Desc": "Intake air temperature",
    "Min": -40,
    "Max": 215,
    "Units": "C",
    "Formula": "A-40"
  },
  {
    "Mode": "01",
    "PID": "10",
    "DataLen": 2,
    "Desc": "MAF air flow rate",
    "Min": 0,
    "Max": 655.35,
    "Units": "grams/sec",
    "Formula": "(256A+B)/100"
  },
  {
    "Mode": "01",
    "PID": "11",
    "DataLen": 1,
    "Desc": "Throttle position",
    "Min": 0,
    "Max": 100,
    "Units": "%",
    "Formula": "(100/255)A"
  },
  {
    "Mode": "01",
    "PID": "12",
    "DataLen": 1,
    "Desc": "Commanded secondary air status",
    "Min": 0,
    "Max": 0,
    "Units": "",
    "Formula": ""
  },
  {
    "Mode": "01",
    "PID": "13",
    "DataLen": 1,
    "Desc": "Oxygen sensors present",
    "Min": 0,
    "Max": 0,
    "Units": "",
    "Formula": ""
  },
  {
    "Mode": "01",
    "PID": "14",
    "DataLen": 2,
    "Desc": "Bank 1, Sensor 1: Oxygen sensor voltage, Short term fuel trim",
    "Min": 0,
    "Max": 0,
    "Units": "",
    "Formula": ""
  },
  {
    "Mode": "01",
    "PID": "15",
    "DataLen": 2,
    "Desc": "Bank 1, Sensor 2: Oxygen sensor voltage, Short term fuel trim",
    "Min": 0,
    "Max": 0,
    "Units": "",
    "Formula": ""
  },
  {
    "Mode": "01",
    "PID": "16",
    "DataLen": 2,
    "Desc": "Bank 1, Sensor 3: Oxygen sensor voltage, Short term fuel trim",
    "Min": 0,
    "Max": 0,
    "Units": "",
    "Formula": ""
  },
  {
    "Mode": "01",
    "PID": "17",
    "DataLen": 2,
    "Desc": "Bank 1, Sensor 4: Oxygen sensor voltage, Short term fuel trim",
    "Min": 0,
    "Max": 0,
    "Units": "",
    "Formula": ""
  },
  {
    "Mode": "01",
    "PID": "18",
    "DataLen": 2,
    "Desc": "Bank 2, Sensor 1: Oxygen sensor voltage, Short term fuel trim",
    "Min": 0,
    "Max": 0,
    "Units": "",
    "Formula": ""
  },
  {
    "Mode": "01",
    "PID": "19",
    "DataLen": 2,
    "Desc": "Bank 2, Sensor 2: Oxygen sensor voltage, Short term fuel trim",
    "Min": 0,
    "Max": 0,
    "Units": "",
    "Formula": ""
  },
  {
    "Mode": "01",
    "PID": "1A",
    "DataLen": 2,
    "Desc": "Bank 2, Sensor 3: Oxygen sensor voltage, Short term fuel trim",
    "Min": 0,
    "Max": 0,
    "Units": "",
    "Formula": ""
  },
  {
    "Mode": "01",
    "PID": "1B",
    "DataLen": 2,
    "Desc": "Bank 2, Sensor 4: Oxygen sensor voltage, Short term fuel trim",
    "Min": 0,
    "Max": 0,
    "Units": "",
    "Formula": ""
  },
  {
    "Mode": "01",
    "PID": "1C",
    "DataLen": 1,
    "Desc": "OBD standards this vehicle conforms to",
    "Min": 0,
    "Max": 0,
    "Units": "",
    "Formula": ""
  },
  {
    "Mode": "01",
    "PID": "1D",
    "DataLen": 1,
    "Desc": "Oxygen sensors present",
    "Min": 0,
    "Max": 0,
    "Units": "",
    "Formula": ""
  },
  {
    "Mode": "01",
    "PID": "1E",
    "DataLen": 1,
    "Desc": "Auxiliary input status",
    "Min": 0,
    "Max": 0,
    "Units": "",
    "Formula": ""
  },
  {
    "Mode": "01",
    "PID": "1F",
    "DataLen": 2,
    "Desc": "Run time since engine start",
    "Min": 0,
    "Max": 65535,
    "Units": "seconds",
    "Formula": "256A+B"
  },
  {
    "Mode": "01",
    "PID": "20",
    "DataLen": 4,
    "Desc": "PIDs supported [21 - 40]",
    "Min": 0,
    "Max": 0,
    "Units": "",
    "Formula": ""
  },
  {
    "Mode": "01",
    "PID": "21",
    "DataLen": 2,
    "Desc": "Distance traveled with malfunction indicator lamp (MIL) on",
    "Min": 0,
    "Max": 65535,
    "Units": "km",
    "Formula": "256A+B"
  },
  {
    "Mode": "01",
    "PID": "22",
    "DataLen": 2,
    "Desc": "Fuel Rail Pressure (relative to manifold vacuum)",
    "Min": 0,
    "Max": 5177.265,
    "Units": "kPa",
    "Formula": "0.079(256A+B)"
  },
  {
    "Mode": "01",
    "PID": "23",
    "DataLen": 2,
    "Desc": "Fuel Rail Pressure (diesel, or gasoline direct inject)",
    "Min": 0,
    "Max": 655350,
    "Units": "kPa",
    "Formula": "10(256A+B)"
  },
  {
    "Mode": "01",
    "PID": "24",
    "DataLen": 4,
    "Desc": "O2S1_WR_lambda(1): Equivalence Ratio Voltage",
    "Min": 0,
    "Max": 2,
    "Units": "ratio",
    "Formula": "(2/65536)(256A+B)"
  },
  {
    "Mode": "01",
    "PID": "25",
    "DataLen": 4,
    "Desc": "O2S2_WR_lambda(1): Equivalence Ratio Voltage",
    "Min": 0,
    "Max": 2,
    "Units": "ratio",
    "Formula": "(2/65536)(256A+B)"
  },
  {
    "Mode": "01",
    "PID": "26",
    "DataLen": 4,
    "Desc": "O2S3_WR_lambda(1): Equivalence Ratio Voltage",
    "Min": 0,
    "Max": 2,
    "Units": "ratio",
    "Formula": "(2/65536)(256A+B)"
  },
  {
    "Mode": "01",
    "PID": "27",
    "DataLen": 4,
    "Desc": "O2S4_WR_lambda(1): Equivalence Ratio Voltage",
    "Min": 0,
    "Max": 2,
    "Units": "ratio",
    "Formula": "(2/65536)(256A+B)"
  },
  {
    "Mode": "01",
    "PID": "28",
    "DataLen": 4,
    "Desc": "O2S5_WR_lambda(1): Equivalence Ratio Voltage",
    "Min": 0,
    "Max": 2,
    "Units": "ratio",
    "Formula": "(2/65536)(256A+B)"
  },
  {
    "Mode": "01",
    "PID": "29",
    "DataLen": 4,
    "Desc": "O2S6_WR_lambda(1): Equivalence Ratio Voltage",
    "Min": 0,
    "Max": 2,
    "Units": "ratio",
    "Formula": "(2/65536)(256A+B)"
  },
  {
    "Mode": "01",
    "PID": "2A",
    "DataLen": 4,
    "Desc": "O2S7_WR_lambda(1): Equivalence Ratio Voltage",
    "Min": 0,
    "Max": 2,
    "Units": "ratio",
    "Formula": "(2/65536)(256A+B)"
  },
  {
    "Mode": "01",
    "PID": "2B",
    "DataLen": 4,
    "Desc": "O2S8_WR_lambda(1): Equivalence Ratio Voltage",
    "Min": 0,
    "Max": 2,
    "Units": "ratio",
    "Formula": "(2/65536)(256A+B)"
  },
  {
    "Mode": "01",
    "PID": "2C",
    "DataLen": 1,
    "Desc": "Commanded EGR",
    "Min": 0,
    "Max": 100,
    "Units": "%",
    "Formula": "(100/255)A"
  },
  {
    "Mode": "01",
    "PID": "2D",
    "DataLen": 1,
    "Desc": "EGR Error",
    "Min": -100,
    "Max": 99.2,
    "Units": "%",
    "Formula": "(100/125)A-100"
  },
  {
    "Mode": "01",
    "PID": "2E",
    "DataLen": 1,
    "Desc": "Commanded evaporative purge",
    "Min": 0,
    "Max": 100,
    "Units": "%",
    "Formula": "(100/255)A"
  },
  {
    "Mode": "01",
    "PID": "2F",
    "DataLen": 1,
    "Desc": "Fuel Level Input",
    "Min": 0,
    "Max": 100,
    "Units": "%",
    "Formula": "(100/255)A"
  },
  {
    "Mode": "01",
    "PID": "30",
    "DataLen": 1,
    "Desc": "# of warm-ups since codes cleared",
    "Min": 0,
    "Max": 255,
    "Units": "count",
    "Formula": "A"
  },
  {
    "Mode": "01",
    "PID": "31",
    "DataLen": 2,
    "Desc": "Distance traveled since codes cleared",
    "Min": 0,
    "Max": 65535,
    "Units": "km",
    "Formula": "256A+B"
  },
  {
    "Mode": "01",
    "PID": "32",
    "DataLen": 2,
    "Desc": "Evap. System Vapor Pressure",
    "Min": -8192,
    "Max": 8191.75,
    "Units": "Pa",
    "Formula": "\"(256A+B)/4\t(AB is two's complement signed)\""
  },
  {
    "Mode": "01",
    "PID": "33",
    "DataLen": 1,
    "Desc": "Barometric pressure",
    "Min": 0,
    "Max": 255,
    "Units": "kPa",
    "Formula": "A"
  },
  {
    "Mode": "01",
    "PID": "34",
    "DataLen": 4,
    "Desc": "O2S1_WR_lambda(1): Equivalence Ratio Current",
    "Min": 0,
    "Max": 0,
    "Units": "",
    "Formula": ""
  },
  {
    "Mode": "01",
    "PID": "35",
    "DataLen": 4,
    "Desc": "O2S2_WR_lambda(1): Equivalence Ratio Current",
    "Min": 0,
    "Max": 0,
    "Units": "",
    "Formula": ""
  },
  {
    "Mode": "01",
    "PID": "36",
    "DataLen": 4,
    "Desc": "O2S3_WR_lambda(1): Equivalence Ratio Current",
    "Min": 0,
    "Max": 0,
    "Units": "",
    "Formula": ""
  },
  {
    "Mode": "01",
    "PID": "37",
    "DataLen": 4,
    "Desc": "O2S4_WR_lambda(1): Equivalence Ratio Current",
    "Min": 0,
    "Max": 0,
    "Units": "",
    "Formula": ""
  },
  {
    "Mode": "01",
    "PID": "38",
    "DataLen": 4,
    "Desc": "O2S5_WR_lambda(1): Equivalence Ratio Current",
    "Min": 0,
    "Max": 0,
    "Units": "",
    "Formula": ""
  },
  {
    "Mode": "01",
    "PID": "39",
    "DataLen": 4,
    "Desc": "O2S6_WR_lambda(1): Equivalence Ratio Current",
    "Min": 0,
    "Max": 0,
    "Units": "",
    "Formula": ""
  },
  {
    "Mode": "01",
    "PID": "3A",
    "DataLen": 4,
    "Desc": "O2S7_WR_lambda(1): Equivalence Ratio Current",
    "Min": 0,
    "Max": 0,
    "Units": "",
    "Formula": ""
  },
  {
    "Mode": "01",
    "PID": "3B",
    "DataLen": 4,
    "Desc": "O2S8_WR_lambda(1): Equivalence Ratio Current",
    "Min": 0,
    "Max": 0,
    "Units": "",
    "Formula": ""
  },
  {
    "Mode": "01",
    "PID": "3C",
    "DataLen": 2,
    "Desc": "Catalyst Temperature Bank 1, Sensor 1",
    "Min": 0,
    "Max": 0,
    "Units": "",
    "Formula": ""
  },
  {
    "Mode": "01",
    "PID": "3D",
    "DataLen": 2,
    "Desc": "Catalyst Temperature Bank 2, Sensor 1",
    "Min": 0,
    "Max": 0,
    "Units": "",
    "Formula": ""
  },
  {
    "Mode": "01",
    "PID": "3E",
    "DataLen": 2,
    "Desc": "Catalyst Temperature Bank 1, Sensor 2",
    "Min": 0,
    "Max": 0,
    "Units": "",
    "Formula": ""
  },
  {
    "Mode": "01",
    "PID": "3F",
    "DataLen": 2,
    "Desc": "Catalyst Temperature Bank 2, Sensor 2",
    "Min": 0,
    "Max": 0,
    "Units": "",
    "Formula": ""
  },
  {
    "Mode": "01",
    "PID": "40",
    "DataLen": 4,
    "Desc": "PIDs supported [41 - 60]",
    "Min": 0,
    "Max": 0,
    "Units": "",
    "Formula": ""
  },
  {
    "Mode": "01",
    "PID": "41",
    "DataLen": 4,
    "Desc": "Monitor status this drive cycle",
    "Min": 0,
    "Max": 0,
    "Units": "",
    "Formula": ""
  },
  {
    "Mode": "01",
    "PID": "42",
    "DataLen": 2,
    "Desc": "Control module voltage",
    "Min": 0,
    "Max": 0,
    "Units": "",
    "Formula": ""
  },
  {
    "Mode": "01",
    "PID": "43",
    "DataLen": 2,
    "Desc": "Absolute load value",
    "Min": 0,
    "Max": 0,
    "Units": "",
    "Formula": ""
  },
  {
    "Mode": "01",
    "PID": "44",
    "DataLen": 2,
    "Desc": "Fuel/Air commanded equivalence ratio",
    "Min": 0,
    "Max": 0,
    "Units": "",
    "Formula": ""
  },
  {
    "Mode": "01",
    "PID": "45",
    "DataLen": 1,
    "Desc": "Relative throttle position",
    "Min": 0,
    "Max": 0,
    "Units": "",
    "Formula": ""
  },
  {
    "Mode": "01",
    "PID": "46",
    "DataLen": 1,
    "Desc": "Ambient air temperature",
    "Min": -40,
    "Max": 215,
    "Units": "C",
    "Formula": "A-40"
  },
  {
    "Mode": "01",
    "PID": "47",
    "DataLen": 1,
    "Desc": "Absolute throttle position B",
    "Min": 0,
    "Max": 0,
    "Units": "",
    "Formula": ""
  },
  {
    "Mode": "01",
    "PID": "48",
    "DataLen": 1,
    "Desc": "Absolute throttle position C",
    "Min": 0,
    "Max": 0,
    "Units": "",
    "Formula": ""
  },
  {
    "Mode": "01",
    "PID": "49",
    "DataLen": 1,
    "Desc": "Accelerator pedal position D",
    "Min": 0,
    "Max": 0,
    "Units": "",
    "Formula": ""
  },
  {
    "Mode": "01",
    "PID": "4A",
    "DataLen": 1,
    "Desc": "Accelerator pedal position E",
    "Min": 0,
    "Max": 0,
    "Units": "",
    "Formula": ""
  },
  {
    "Mode": "01",
    "PID": "4B",
    "DataLen": 1,
    "Desc": "Accelerator pedal position F",
    "Min": 0,
    "Max": 0,
    "Units": "",
    "Formula": ""
  },
  {
    "Mode": "01",
    "PID": "4C",
    "DataLen": 1,
    "Desc": "Commanded throttle actuator",
    "Min": 0,
    "Max": 0,
    "Units": "",
    "Formula": ""
  },
  {
    "Mode": "01",
    "PID": "4D",
    "DataLen": 2,
    "Desc": "Time run with MIL on",
    "Min": 0,
    "Max": 0,
    "Units": "",
    "Formula": ""
  },
  {
    "Mode": "01",
    "PID": "4E",
    "DataLen": 2,
    "Desc": "Time since trouble codes cleared",
    "Min": 0,
    "Max": 0,
    "Units": "",
    "Formula": ""
  },
  {
    "Mode": "01",
    "PID": "4F",
    "DataLen": 4,
    "Desc": "Maximum value for equivalence ratio, oxygen sensor voltage, oxygen sensor current, and intake manifold absolute pressure",
    "Min": 0,
    "Max": 0,
    "Units": "",
    "Formula": ""
  },
  {
    "Mode": "01",
    "PID": "50",
    "DataLen": 4,
    "Desc": "Maximum value for air flow rate from mass air flow sensor",
    "Min": 0,
    "Max": 0,
    "Units": "",
    "Formula": ""
  },
  {
    "Mode": "01",
    "PID": "51",
    "DataLen": 1,
    "Desc": "Fuel Type",
    "Min": 0,
    "Max": 0,
    "Units": "",
    "Formula": ""
  },
  {
    "Mode": "01",
    "PID": "52",
    "DataLen": 1,
    "Desc": "Ethanol fuel %",
    "Min": 0,
    "Max": 0,
    "Units": "",
    "Formula": ""
  },
  {
    "Mode": "01",
    "PID": "53",
    "DataLen": 2,
    "Desc": "Absolute Evap system Vapor Pressure",
    "Min": 0,
    "Max": 0,
    "Units": "",
    "Formula": ""
  },
  {
    "Mode": "01",
    "PID": "54",
    "DataLen": 2,
    "Desc": "Evap system vapor pressure",
    "Min": 0,
    "Max": 0,
    "Units": "",
    "Formula": ""
  },
  {
    "Mode": "01",
    "PID": "55",
    "DataLen": 2,
    "Desc": "Short term secondary oxygen sensor trim bank 1 and bank 3",
    "Min": 0,
    "Max": 0,
    "Units": "",
    "Formula": ""
  },
  {
    "Mode": "01",
    "PID": "56",
    "DataLen": 2,
    "Desc": "Long term secondary oxygen sensor trim bank 1 and bank 3",
    "Min": 0,
    "Max": 0,
    "Units": "",
    "Formula": ""
  },
  {
    "Mode": "01",
    "PID": "57",
    "DataLen": 2,
    "Desc": "Short term secondary oxygen sensor trim bank 2 and bank 4",
    "Min": 0,
    "Max": 0,
    "Units": "",
    "Formula": ""
  },
  {
    "Mode": "01",
    "PID": "58",
    "DataLen": 2,
    "Desc": "Long term secondary oxygen sensor trim bank 2 and bank 4",
    "Min": 0,
    "Max": 0,
    "Units": "",
    "Formula": ""
  },
  {
    "Mode": "01",
    "PID": "59",
    "DataLen": 2,
    "Desc": "Fuel rail pressure (absolute)",
    "Min": 0,
    "Max": 0,
    "Units": "",
    "Formula": ""
  },
  {
    "Mode": "01",
    "PID": "5A",
    "DataLen": 1,
    "Desc": "Relative accelerator pedal position",
    "Min": 0,
    "Max": 0,
    "Units": "",
    "Formula": ""
  },
  {
    "Mode": "01",
    "PID": "5B",
    "DataLen": 1,
    "Desc": "Hybrid battery pack remaining life",
    "Min": 0,
    "Max": 0,
    "Units": "",
    "Formula": ""
  },
  {
    "Mode": "01",
    "PID": "5C",
    "DataLen": 1,
    "Desc": "Engine oil temperature",
    "Min": 0,
    "Max": 0,
    "Units": "",
    "Formula": ""
  },
  {
    "Mode": "01",
    "PID": "5D",
    "DataLen": 2,
    "Desc": "Fuel injection timing",
    "Min": 0,
    "Max": 0,
    "Units": "",
    "Formula": ""
  },
  {
    "Mode": "01",
    "PID": "5E",
    "DataLen": 2,
    "Desc": "Engine fuel rate",
    "Min": 0,
    "Max": 0,
    "Units": "",
    "Formula": ""
  },
  {
    "Mode": "01",
    "PID": "5F",
    "DataLen": 1,
    "Desc": "Emission requirements to which vehicle is designed",
    "Min": 0,
    "Max": 0,
    "Units": "",
    "Formula": ""
  },
  {
    "Mode": "01",
    "PID": "60",
    "DataLen": 4,
    "Desc": "PIDs supported [61 - 80]",
    "Min": 0,
    "Max": 0,
    "Units": "",
    "Formula": ""
  },
  {
    "Mode": "01",
    "PID": "61",
    "DataLen": 1,
    "Desc": "Driver's demand engine - percent torque",
    "Min": 0,
    "Max": 0,
    "Units": "",
    "Formula": ""
  },
  {
    "Mode": "01",
    "PID": "62",
    "DataLen": 1,
    "Desc": "Actual engine - percent torque",
    "Min": 0,
    "Max": 0,
    "Units": "",
    "Formula": ""
  },
  {
    "Mode": "01",
    "PID": "63",
    "DataLen": 2,
    "Desc": "Engine reference torque",
    "Min": 0,
    "Max": 0,
    "Units": "",
    "Formula": ""
  },
  {
    "Mode": "01",
    "PID": "64",
    "DataLen": 5,
    "Desc": "Engine percent torque data",
    "Min": 0,
    "Max": 0,
    "Units": "",
    "Formula": ""
  },
  {
    "Mode": "01",
    "PID": "65",
    "DataLen": 2,
    "Desc": "Auxiliary input / output supported",
    "Min": 0,
    "Max": 0,
    "Units": "",
    "Formula": ""
  },
  {
    "Mode": "01",
    "PID": "66",
    "DataLen": 5,
    "Desc": "Mass air flow sensor",
    "Min": 0,
    "Max": 0,
    "Units": "",
    "Formula": ""
  },
  {
    "Mode": "01",
    "PID": "67",
    "DataLen": 3,
    "Desc": "Engine coolant temperature",
    "Min": 0,
    "Max": 0,
    "Units": "",
    "Formula": ""
  },
  {
    "Mode": "01",
    "PID": "68",
    "DataLen": 7,
    "Desc": "Intake air temperature sensor",
    "Min": 0,
    "Max": 0,
    "Units": "",
    "Formula": ""
  },
  {
    "Mode": "01",
    "PID": "69",
    "DataLen": 7,
    "Desc": "Commanded EGR and EGR Error",
    "Min": 0,
    "Max": 0,
    "Units": "",
    "Formula": ""
  },
  {
    "Mode": "01",
    "PID": "6A",
    "DataLen": 5,
    "Desc": "Commanded Diesel intake air flow control and relative intake air flow position",
    "Min": 0,
    "Max": 0,
    "Units": "",
    "Formula": ""
  },
  {
    "Mode": "01",
    "PID": "6B",
    "DataLen": 5,
    "Desc": "Exhaust gas recirculation temperature",
    "Min": 0,
    "Max": 0,
    "Units": "",
    "Formula": ""
  },
  {
    "Mode": "01",
    "PID": "6C",
    "DataLen": 5,
    "Desc": "Commanded throttle actuator control and relative throttle position",
    "Min": 0,
    "Max": 0,
    "Units": "",
    "Formula": ""
  },
  {
    "Mode": "01",
    "PID": "6D",
    "DataLen": 6,
    "Desc": "Fuel pressure control system",
    "Min": 0,
    "Max": 0,
    "Units": "",
    "Formula": ""
  },
  {
    "Mode": "01",
    "PID": "6E",
    "DataLen": 5,
    "Desc": "Injection pressure control system",
    "Min": 0,
    "Max": 0,
    "Units": "",
    "Formula": ""
  },
  {
    "Mode": "01",
    "PID": "6F",
    "DataLen": 3,
    "Desc": "Turbocharger compressor inlet pressure",
    "Min": 0,
    "Max": 0,
    "Units": "",
    "Formula": ""
  },
  {
    "Mode": "01",
    "PID": "70",
    "DataLen": 9,
    "Desc": "Boost pressure control",
    "Min": 0,
    "Max": 0,
    "Units": "",
    "Formula": ""
  },
  {
    "Mode": "01",
    "PID": "71",
    "DataLen": 5,
    "Desc": "Variable Geometry turbo (VGT) control",
    "Min": 0,
    "Max": 0,
    "Units": "",
    "Formula": ""
  },
  {
    "Mode": "01",
    "PID": "72",
    "DataLen": 5,
    "Desc": "Wastegate control",
    "Min": 0,
    "Max": 0,
    "Units": "",
    "Formula": ""
  },
  {
    "Mode": "01",
    "PID": "73",
    "DataLen": 5,
    "Desc": "Exhaust pressure",
    "Min": 0,
    "Max": 0,
    "Units": "",
    "Formula": ""
  },
  {
    "Mode": "01",
    "PID": "74",
    "DataLen": 5,
    "Desc": "Turbocharger RPM",
    "Min": 0,
    "Max": 0,
    "Units": "",
    "Formula": ""
  },
  {
    "Mode": "01",
    "PID": "75",
    "DataLen": 7,
    "Desc": "Turbocharger temperature",
    "Min": 0,
    "Max": 0,
    "Units": "",
    "Formula": ""
  },
  {
    "Mode": "01",
    "PID": "76",
    "DataLen": 7,
    "Desc": "Turbocharger temperature",
    "Min": 0,
    "Max": 0,
    "Units": "",
    "Formula": ""
  },
  {
    "Mode": "01",
    "PID": "77",
    "DataLen": 5,
    "Desc": "Charge air cooler temperature (CACT)",
    "Min": 0,
    "Max": 0,
    "Units": "",
    "Formula": ""
  },
  {
    "Mode": "01",
    "PID": "78",
    "DataLen": 9,
    "Desc": "Exhaust Gas temperature (EGT) Bank 1",
    "Min": 0,
    "Max": 0,
    "Units": "",
    "Formula": ""
  },
  {
    "Mode": "01",
    "PID": "79",
    "DataLen": 9,
    "Desc": "Exhaust Gas temperature (EGT) Bank 2",
    "Min": 0,
    "Max": 0,
    "Units": "",
    "Formula": ""
  },
  {
    "Mode": "01",
    "PID": "7A",
    "DataLen": 7,
    "Desc": "Diesel particulate filter (DPF)",
    "Min": 0,
    "Max": 0,
    "Units": "",
    "Formula": ""
  },
  {
    "Mode": "01",
    "PID": "7B",
    "DataLen": 7,
    "Desc": "Diesel particulate filter (DPF)",
    "Min": 0,
    "Max": 0,
    "Units": "",
    "Formula": ""
  },
  {
    "Mode": "01",
    "PID": "7C",
    "DataLen": 9,
    "Desc": "Diesel Particulate filter (DPF) temperature",
    "Min": 0,
    "Max": 0,
    "Units": "",
    "Formula": ""
  },
  {
    "Mode": "01",
    "PID": "7D",
    "DataLen": 1,
    "Desc": "NOx NTE control area status",
    "Min": 0,
    "Max": 0,
    "Units": "",
    "Formula": ""
  },
  {
    "Mode": "01",
    "PID": "7E",
    "DataLen": 1,
    "Desc": "PM NTE control area status",
    "Min": 0,
    "Max": 0,
    "Units": "",
    "Formula": ""
  },
  {
    "Mode": "01",
    "PID": "7F",
    "DataLen": 13,
    "Desc": "Engine run time",
    "Min": 0,
    "Max": 0,
    "Units": "",
    "Formula": ""
  },
  {
    "Mode": "01",
    "PID": "80",
    "DataLen": 4,
    "Desc": "PIDs supported [81 - A0]",
    "Min": 0,
    "Max": 0,
    "Units": "",
    "Formula": ""
  },
  {
    "Mode": "01",
    "PID": "81",
    "DataLen": 21,
    "Desc": "Engine run time for Auxiliary Emissions Control Device(AECD)",
    "Min": 0,
    "Max": 0,
    "Units": "",
    "Formula": ""
  },
  {
    "Mode": "01",
    "PID": "82",
    "DataLen": 21,
    "Desc": "Engine run time for Auxiliary Emissions Control Device(AECD)",
    "Min": 0,
    "Max": 0,
    "Units": "",
    "Formula": ""
  },
  {
    "Mode": "01",
    "PID": "83",
    "DataLen": 5,
    "Desc": "NOx sensor",
    "Min": 0,
    "Max": 0,
    "Units": "",
    "Formula": ""
  },
  {
    "Mode": "01",
    "PID": "84",
    "DataLen": 1,
    "Desc": "Manifold surface temperature",
    "Min": 0,
    "Max": 0,
    "Units": "",
    "Formula": ""
  },
  {
    "Mode": "01",
    "PID": "85",
    "DataLen": 1,
    "Desc": "NOx reagent system",
    "Min": 0,
    "Max": 0,
    "Units": "",
    "Formula": ""
  },
  {
    "Mode": "01",
    "PID": "86",
    "DataLen": 1,
    "Desc": "Particulate matter (PM) sensor",
    "Min": 0,
    "Max": 0,
    "Units": "",
    "Formula": ""
  },
  {
    "Mode": "01",
    "PID": "87",
    "DataLen": 1,
    "Desc": "Intake manifold absolute pressure",
    "Min": 0,
    "Max": 0,
    "Units": "",
    "Formula": ""
  },
  {
    "Mode": "01",
    "PID": "A0",
    "DataLen": 4,
    "Desc": "PIDs supported [A1 - C0]",
    "Min": 0,
    "Max": 0,
    "Units": "",
    "Formula": ""
  },
  {
    "Mode": "01",
    "PID": "C0",
    "DataLen": 4,
    "Desc": "PIDs supported [C1 - E0]",
    "Min": 0,
    "Max": 0,
    "Units": "",
    "Formula": ""
  },
  {
    "Mode": "01",
    "PID": "C3",
    "DataLen": 1,
    "Desc": " ?",
    "Min": 0,
    "Max": 0,
    "Units": "",
    "Formula": ""
  },
  {
    "Mode": "01",
    "PID": "C4",
    "DataLen": 1,
    "Desc": " ?",
    "Min": 0,
    "Max": 0,
    "Units": "",
    "Formula": ""
  }
]